<?xml version="1.0" encoding="UTF-8"?>

<!-- generated on 2025-11-21 17:16:41 by Eclipse SUMO GUI Version 1.22.0
<sumoConfiguration xmlns:xsi="http://www.w3.org/2001/XMLSchema-instance" xsi:noNamespaceSchemaLocation="http://sumo.dlr.de/xsd/sumoConfiguration.xsd">

    <input>
        <net-file value="src/automotive/examples/Liten_rondell/osm.net.xml.gz"/>
        <route-files value="src/automotive/examples/Liten_rondell/osm.passenger.trips.xml"/>
        <additional-files value="src/automotive/examples/Liten_rondell/osm.poly.xml.gz,src/automotive/examples/Liten_rondell/osm.med.add.xml"/>
    </input>

    <output>
        <tripinfo-output value="src/automotive/examples/Liten_rondell/tripinfos.xml"/>
        <statistic-output value="src/automotive/examples/Liten_rondell/stats.xml"/>
    </output>

    <time>
        <step-length value="0.010000"/>
    </time>

    <processing>
        <ignore-route-errors value="true"/>
        <collision.action value="warn"/>
        <collision.check-junctions value="true"/>
        <tls.actuated.jam-threshold value="30"/>
    </processing>

    <routing>
        <device.rerouting.adaptation-steps value="18"/>
        <device.rerouting.adaptation-interval value="10"/>
    </routing>

    <report>
        <verbose value="true"/>
        <error-log value="sumo-errors-or-collisions.xml"/>
        <duration-log.statistics value="true"/>
        <no-step-log value="true"/>
    </report>

    <traci_server>
        <remote-port value="3400"/>
    </traci_server>

    <random_number>
        <seed value="10"/>
    </random_number>

    <gui_only>
        <gui-settings-file value="src/automotive/examples/Liten_rondell/osm.view.xml"/>
        <quit-on-end value="true"/>
        <start value="true"/>
    </gui_only>

</sumoConfiguration>
-->

<meandata xmlns:xsi="http://www.w3.org/2001/XMLSchema-instance" xsi:noNamespaceSchemaLocation="http://sumo.dlr.de/xsd/meandata_file.xsd">
</meandata>
