<?xml version="1.0" encoding="UTF-8"?>

<!-- generated on 2025-05-06 15:06:02 by Eclipse SUMO GUI Version 1.22.0
<sumoConfiguration xmlns:xsi="http://www.w3.org/2001/XMLSchema-instance" xsi:noNamespaceSchemaLocation="http://sumo.dlr.de/xsd/sumoConfiguration.xsd">

    <input>
        <net-file value="/home/ed-5355-2/sim/sumo/tools/2025-05-06-15-05-56/osm.net.xml.gz"/>
        <route-files value="/home/ed-5355-2/sim/sumo/tools/2025-05-06-15-05-56/osm.passenger.trips.xml"/>
        <additional-files value="/home/ed-5355-2/sim/sumo/tools/2025-05-06-15-05-56/osm.poly.xml.gz,/home/ed-5355-2/sim/sumo/tools/2025-05-06-15-05-56/output.add.xml"/>
    </input>

    <output>
        <tripinfo-output value="/home/ed-5355-2/sim/sumo/tools/2025-05-06-15-05-56/tripinfos.xml"/>
        <statistic-output value="/home/ed-5355-2/sim/sumo/tools/2025-05-06-15-05-56/stats.xml"/>
    </output>

    <processing>
        <ignore-route-errors value="true"/>
        <tls.actuated.jam-threshold value="30"/>
    </processing>

    <routing>
        <device.rerouting.adaptation-steps value="18"/>
        <device.rerouting.adaptation-interval value="10"/>
    </routing>

    <report>
        <verbose value="true"/>
        <duration-log.statistics value="true"/>
        <no-step-log value="true"/>
    </report>

    <gui_only>
        <gui-settings-file value="/home/ed-5355-2/sim/sumo/tools/2025-05-06-15-05-56/osm.view.xml"/>
    </gui_only>

</sumoConfiguration>
-->

<meandata xmlns:xsi="http://www.w3.org/2001/XMLSchema-instance" xsi:noNamespaceSchemaLocation="http://sumo.dlr.de/xsd/meandata_file.xsd">
</meandata>
