<?xml version="1.0" encoding="UTF-8"?>

<!-- generated on 2025-02-28 14:45:45 by Eclipse SUMO netedit Version 1.22.0
<neteditConfiguration xmlns:xsi="http://www.w3.org/2001/XMLSchema-instance" xsi:noNamespaceSchemaLocation="http://sumo.dlr.de/xsd/neteditConfiguration.xsd">

    <input>
        <sumocfg-file value="/home/ed-5355-1/sim/sumo/tools/2025-02-28-13-25-52/osm.sumocfg"/>
        <additional-files value="/home/ed-5355-1/sim/sumo/tools/2025-02-28-13-25-52/osm.poly.xml.gz"/>
        <route-files value="/home/ed-5355-1/sim/sumo/tools/2025-02-28-13-25-52/osm.passenger.trips.xml"/>
        <meandata-files value="/home/ed-5355-1/sim/sumo/tools/2025-02-28-13-25-52/osm.med.add.xml"/>
        <sumo-net-file value="/home/ed-5355-1/sim/sumo/tools/2025-02-28-13-25-52/osm.net.xml.gz"/>
    </input>

    <output>
        <output-file value="/home/ed-5355-1/sim/sumo/tools/2025-02-28-13-25-52/osm.net.xml.gz"/>
        <output.street-names value="true"/>
    </output>

    <processing>
        <geometry.min-radius.fix.railways value="false"/>
        <geometry.max-grade.fix value="false"/>
        <offset.disable-normalization value="true"/>
        <lefthand value="0"/>
    </processing>

    <junctions>
        <no-turnarounds value="true"/>
        <junctions.corner-detail value="5"/>
        <junctions.limit-turn-speed value="5.50"/>
        <rectangular-lane-cut value="0"/>
    </junctions>

    <pedestrian>
        <walkingareas value="0"/>
    </pedestrian>

    <netedit>
        <ignore.routeelements value="false"/>
    </netedit>

</neteditConfiguration>
-->

<net version="1.20" junctionCornerDetail="5" limitTurnSpeed="5.50" xmlns:xsi="http://www.w3.org/2001/XMLSchema-instance" xsi:noNamespaceSchemaLocation="http://sumo.dlr.de/xsd/net_file.xsd">

    <location netOffset="-322348.54,-6400733.28" convBoundary="67.72,12.50,364.56,237.32" origBoundary="12.017566,57.713613,12.025037,57.716450" projParameter="+proj=utm +zone=33 +ellps=WGS84 +datum=WGS84 +units=m +no_defs"/>

    <type id="highway.residential" priority="3" numLanes="1" speed="13.89" disallow="tram rail_urban rail rail_electric rail_fast ship container cable_car subway aircraft wheelchair scooter drone" oneway="0"/>

    <edge id=":e1_0" function="internal">
        <lane id=":e1_0_0" index="0" disallow="tram rail_urban rail rail_electric rail_fast ship container cable_car subway aircraft wheelchair scooter drone" speed="13.89" length="14.47" shape="317.84,235.41 303.43,236.80"/>
    </edge>
    <edge id=":e1_1" function="internal">
        <lane id=":e1_1_0" index="0" disallow="tram rail_urban rail rail_electric rail_fast ship container cable_car subway aircraft wheelchair scooter drone" speed="8.60" length="3.82" shape="317.84,235.41 314.17,235.19 314.04,235.13"/>
    </edge>
    <edge id=":e1_2" function="internal">
        <lane id=":e1_2_0" index="0" disallow="tram rail_urban rail rail_electric rail_fast ship container cable_car subway aircraft wheelchair scooter drone" speed="3.65" length="1.44" shape="317.84,235.41 316.57,234.73"/>
    </edge>
    <edge id=":e1_9" function="internal">
        <lane id=":e1_9_0" index="0" disallow="tram rail_urban rail rail_electric rail_fast ship container cable_car subway aircraft wheelchair scooter drone" speed="8.60" length="10.66" shape="314.04,235.13 311.23,233.78 308.99,231.16 307.48,227.35"/>
    </edge>
    <edge id=":e1_10" function="internal">
        <lane id=":e1_10_0" index="0" disallow="tram rail_urban rail rail_electric rail_fast ship container cable_car subway aircraft wheelchair scooter drone" speed="3.65" length="3.23" shape="316.57,234.73 316.09,233.97 316.42,233.14 317.54,232.23"/>
    </edge>
    <edge id=":e1_3" function="internal">
        <lane id=":e1_3_0" index="0" disallow="tram rail_urban rail rail_electric rail_fast ship container cable_car subway aircraft wheelchair scooter drone" speed="7.21" length="9.91" shape="310.57,226.54 311.62,229.22 313.13,231.06 315.10,232.06 317.54,232.23"/>
    </edge>
    <edge id=":e1_4" function="internal">
        <lane id=":e1_4_0" index="0" disallow="tram rail_urban rail rail_electric rail_fast ship container cable_car subway aircraft wheelchair scooter drone" speed="7.74" length="14.84" shape="310.57,226.54 311.05,230.68 310.01,233.76 307.48,235.80 303.43,236.80"/>
    </edge>
    <edge id=":e1_5" function="internal">
        <lane id=":e1_5_0" index="0" disallow="tram rail_urban rail rail_electric rail_fast ship container cable_car subway aircraft wheelchair scooter drone" speed="3.65" length="4.67" shape="310.57,226.54 310.10,227.90 309.43,228.49 308.56,228.31 307.48,227.35"/>
    </edge>
    <edge id=":e1_6" function="internal">
        <lane id=":e1_6_0" index="0" disallow="tram rail_urban rail rail_electric rail_fast ship container cable_car subway aircraft wheelchair scooter drone" speed="6.19" length="9.05" shape="303.12,233.61 305.59,233.01 307.14,231.76 307.77,229.88 307.48,227.35"/>
    </edge>
    <edge id=":e1_7" function="internal">
        <lane id=":e1_7_0" index="0" disallow="tram rail_urban rail rail_electric rail_fast ship container cable_car subway aircraft wheelchair scooter drone" speed="13.89" length="14.48" shape="303.12,233.61 317.54,232.23"/>
    </edge>
    <edge id=":e1_8" function="internal">
        <lane id=":e1_8_0" index="0" disallow="tram rail_urban rail rail_electric rail_fast ship container cable_car subway aircraft wheelchair scooter drone" speed="3.65" length="1.44" shape="303.12,233.61 304.39,234.29"/>
    </edge>
    <edge id=":e1_11" function="internal">
        <lane id=":e1_11_0" index="0" disallow="tram rail_urban rail rail_electric rail_fast ship container cable_car subway aircraft wheelchair scooter drone" speed="3.65" length="3.23" shape="304.39,234.29 304.87,235.05 304.55,235.88 303.43,236.80"/>
    </edge>
    <edge id=":e2_0" function="internal">
        <lane id=":e2_0_0" index="0" disallow="tram rail_urban rail rail_electric rail_fast ship container cable_car subway aircraft wheelchair scooter drone" speed="13.89" length="14.75" shape="295.84,183.08 292.20,168.79"/>
    </edge>
    <edge id=":e2_1" function="internal">
        <lane id=":e2_1_0" index="0" disallow="tram rail_urban rail rail_electric rail_fast ship container cable_car subway aircraft wheelchair scooter drone" speed="7.94" length="4.38" shape="295.84,183.08 295.27,179.17 295.39,178.75"/>
    </edge>
    <edge id=":e2_2" function="internal">
        <lane id=":e2_2_0" index="0" disallow="tram rail_urban rail rail_electric rail_fast ship container cable_car subway aircraft wheelchair scooter drone" speed="3.65" length="1.44" shape="295.84,183.08 296.27,181.70"/>
    </edge>
    <edge id=":e2_9" function="internal">
        <lane id=":e2_9_0" index="0" disallow="tram rail_urban rail rail_electric rail_fast ship container cable_car subway aircraft wheelchair scooter drone" speed="7.94" length="9.96" shape="295.39,178.75 296.12,176.06 298.36,173.75 302.01,172.24"/>
    </edge>
    <edge id=":e2_10" function="internal">
        <lane id=":e2_10_0" index="0" disallow="tram rail_urban rail rail_electric rail_fast ship container cable_car subway aircraft wheelchair scooter drone" speed="3.65" length="3.23" shape="296.27,181.70 296.92,181.09 297.80,181.25 298.91,182.17"/>
    </edge>
    <edge id=":e2_3" function="internal">
        <lane id=":e2_3_0" index="0" disallow="tram rail_urban rail rail_electric rail_fast ship container cable_car subway aircraft wheelchair scooter drone" speed="6.44" length="9.05" shape="302.80,175.33 300.50,176.29 299.08,177.75 298.55,179.71 298.91,182.17"/>
    </edge>
    <edge id=":e2_4" function="internal">
        <lane id=":e2_4_0" index="0" disallow="tram rail_urban rail rail_electric rail_fast ship container cable_car subway aircraft wheelchair scooter drone" speed="7.93" length="14.34" shape="302.80,175.33 298.88,175.77 295.80,174.82 293.57,172.49 292.20,168.79"/>
    </edge>
    <edge id=":e2_5" function="internal">
        <lane id=":e2_5_0" index="0" disallow="tram rail_urban rail rail_electric rail_fast ship container cable_car subway aircraft wheelchair scooter drone" speed="3.65" length="4.67" shape="302.80,175.33 301.44,174.86 300.86,174.18 301.04,173.31 302.01,172.24"/>
    </edge>
    <edge id=":e2_6" function="internal">
        <lane id=":e2_6_0" index="0" disallow="tram rail_urban rail rail_electric rail_fast ship container cable_car subway aircraft wheelchair scooter drone" speed="6.42" length="9.04" shape="295.33,168.11 296.19,170.44 297.59,171.91 299.53,172.51 302.01,172.24"/>
    </edge>
    <edge id=":e2_7" function="internal">
        <lane id=":e2_7_0" index="0" disallow="tram rail_urban rail rail_electric rail_fast ship container cable_car subway aircraft wheelchair scooter drone" speed="13.89" length="14.51" shape="295.33,168.11 298.91,182.17"/>
    </edge>
    <edge id=":e2_8" function="internal">
        <lane id=":e2_8_0" index="0" disallow="tram rail_urban rail rail_electric rail_fast ship container cable_car subway aircraft wheelchair scooter drone" speed="3.65" length="1.44" shape="295.33,168.11 294.80,169.45"/>
    </edge>
    <edge id=":e2_11" function="internal">
        <lane id=":e2_11_0" index="0" disallow="tram rail_urban rail rail_electric rail_fast ship container cable_car subway aircraft wheelchair scooter drone" speed="3.65" length="3.23" shape="294.80,169.45 294.10,170.01 293.23,169.79 292.20,168.79"/>
    </edge>
    <edge id=":ee1_0" function="internal">
        <lane id=":ee1_0_0" index="0" disallow="tram rail_urban rail rail_electric rail_fast ship container cable_car subway aircraft wheelchair scooter drone" speed="6.07" length="8.31" shape="365.23,224.33 365.48,226.63 364.91,228.38 363.52,229.59 361.30,230.26"/>
    </edge>
    <edge id=":ee1_1" function="internal">
        <lane id=":ee1_1_0" index="0" disallow="tram rail_urban rail rail_electric rail_fast ship container cable_car subway aircraft wheelchair scooter drone" speed="3.65" length="1.44" shape="365.23,224.33 364.76,225.69"/>
    </edge>
    <edge id=":ee1_4" function="internal">
        <lane id=":ee1_4_0" index="0" disallow="tram rail_urban rail rail_electric rail_fast ship container cable_car subway aircraft wheelchair scooter drone" speed="3.65" length="3.23" shape="364.76,225.69 364.08,226.27 363.21,226.08 362.13,225.12"/>
    </edge>
    <edge id=":ee1_2" function="internal">
        <lane id=":ee1_2_0" index="0" disallow="tram rail_urban rail rail_electric rail_fast ship container cable_car subway aircraft wheelchair scooter drone" speed="3.90" length="2.77" shape="360.82,227.10 361.56,226.88 362.03,226.47 362.22,225.89 362.13,225.12"/>
    </edge>
    <edge id=":ee1_3" function="internal">
        <lane id=":ee1_3_0" index="0" disallow="tram rail_urban rail rail_electric rail_fast ship container cable_car subway aircraft wheelchair scooter drone" speed="3.65" length="1.30" shape="360.82,227.10 362.00,227.65"/>
    </edge>
    <edge id=":ee1_5" function="internal">
        <lane id=":ee1_5_0" index="0" disallow="tram rail_urban rail rail_electric rail_fast ship container cable_car subway aircraft wheelchair scooter drone" speed="3.65" length="3.37" shape="362.00,227.65 362.13,227.71 362.65,228.44 362.37,229.29 361.30,230.26"/>
    </edge>
    <edge id=":ee2_0" function="internal">
        <lane id=":ee2_0_0" index="0" disallow="tram rail_urban rail rail_electric rail_fast ship container cable_car subway aircraft wheelchair scooter drone" speed="6.51" length="9.03" shape="348.56,169.35 347.61,167.06 346.15,165.63 344.20,165.05 341.74,165.32"/>
    </edge>
    <edge id=":ee2_1" function="internal">
        <lane id=":ee2_1_0" index="0" disallow="tram rail_urban rail rail_electric rail_fast ship container cable_car subway aircraft wheelchair scooter drone" speed="13.89" length="14.37" shape="348.56,169.35 345.06,155.41"/>
    </edge>
    <edge id=":ee2_2" function="internal">
        <lane id=":ee2_2_0" index="0" disallow="tram rail_urban rail rail_electric rail_fast ship container cable_car subway aircraft wheelchair scooter drone" speed="3.65" length="1.44" shape="348.56,169.35 349.03,167.98"/>
    </edge>
    <edge id=":ee2_9" function="internal">
        <lane id=":ee2_9_0" index="0" disallow="tram rail_urban rail rail_electric rail_fast ship container cable_car subway aircraft wheelchair scooter drone" speed="3.65" length="3.23" shape="349.03,167.98 349.71,167.40 350.58,167.58 351.66,168.55"/>
    </edge>
    <edge id=":ee2_3" function="internal">
        <lane id=":ee2_3_0" index="0" disallow="tram rail_urban rail rail_electric rail_fast ship container cable_car subway aircraft wheelchair scooter drone" speed="13.89" length="14.33" shape="348.16,154.65 351.66,168.55"/>
    </edge>
    <edge id=":ee2_4" function="internal">
        <lane id=":ee2_4_0" index="0" disallow="tram rail_urban rail rail_electric rail_fast ship container cable_car subway aircraft wheelchair scooter drone" speed="8.03" length="4.00" shape="348.16,154.65 348.54,158.50 348.50,158.63"/>
    </edge>
    <edge id=":ee2_5" function="internal">
        <lane id=":ee2_5_0" index="0" disallow="tram rail_urban rail rail_electric rail_fast ship container cable_car subway aircraft wheelchair scooter drone" speed="3.65" length="1.44" shape="348.16,154.65 347.67,156.00"/>
    </edge>
    <edge id=":ee2_10" function="internal">
        <lane id=":ee2_10_0" index="0" disallow="tram rail_urban rail rail_electric rail_fast ship container cable_car subway aircraft wheelchair scooter drone" speed="8.03" length="10.17" shape="348.50,158.63 347.60,161.56 345.33,163.83 341.74,165.32"/>
    </edge>
    <edge id=":ee2_11" function="internal">
        <lane id=":ee2_11_0" index="0" disallow="tram rail_urban rail rail_electric rail_fast ship container cable_car subway aircraft wheelchair scooter drone" speed="3.65" length="3.23" shape="347.67,156.00 346.99,156.58 346.12,156.38 345.06,155.41"/>
    </edge>
    <edge id=":ee2_6" function="internal">
        <lane id=":ee2_6_0" index="0" disallow="tram rail_urban rail rail_electric rail_fast ship container cable_car subway aircraft wheelchair scooter drone" speed="6.54" length="9.05" shape="340.94,162.22 343.24,161.27 344.69,159.82 345.30,157.86 345.06,155.41"/>
    </edge>
    <edge id=":ee2_7" function="internal">
        <lane id=":ee2_7_0" index="0" disallow="tram rail_urban rail rail_electric rail_fast ship container cable_car subway aircraft wheelchair scooter drone" speed="8.00" length="14.18" shape="340.94,162.22 344.81,161.80 347.88,162.71 350.16,164.96 351.66,168.55"/>
    </edge>
    <edge id=":ee2_8" function="internal">
        <lane id=":ee2_8_0" index="0" disallow="tram rail_urban rail rail_electric rail_fast ship container cable_car subway aircraft wheelchair scooter drone" speed="3.65" length="4.67" shape="340.94,162.22 342.31,162.70 342.89,163.37 342.70,164.25 341.74,165.32"/>
    </edge>
    <edge id=":ee3_0" function="internal">
        <lane id=":ee3_0_0" index="0" disallow="tram rail_urban rail rail_electric rail_fast ship container cable_car subway aircraft wheelchair scooter drone" speed="3.95" length="2.00" shape="313.00,35.78 312.79,35.29 312.48,34.93 312.07,34.71 311.55,34.61"/>
    </edge>
    <edge id=":ee3_1" function="internal">
        <lane id=":ee3_1_0" index="0" disallow="tram rail_urban rail rail_electric rail_fast ship container cable_car subway aircraft wheelchair scooter drone" speed="3.65" length="1.31" shape="313.00,35.78 313.41,34.53"/>
    </edge>
    <edge id=":ee3_4" function="internal">
        <lane id=":ee3_4_0" index="0" disallow="tram rail_urban rail rail_electric rail_fast ship container cable_car subway aircraft wheelchair scooter drone" speed="3.65" length="3.36" shape="313.41,34.53 313.45,34.41 314.11,33.81 314.99,33.98 316.08,34.92"/>
    </edge>
    <edge id=":ee3_2" function="internal">
        <lane id=":ee3_2_0" index="0" disallow="tram rail_urban rail rail_electric rail_fast ship container cable_car subway aircraft wheelchair scooter drone" speed="6.17" length="5.99" shape="311.75,31.41 313.30,31.71 314.54,32.40 315.47,33.47 316.08,34.92"/>
    </edge>
    <edge id=":ee3_3" function="internal">
        <lane id=":ee3_3_0" index="0" disallow="tram rail_urban rail rail_electric rail_fast ship container cable_car subway aircraft wheelchair scooter drone" speed="3.65" length="1.44" shape="311.75,31.41 312.90,32.29"/>
    </edge>
    <edge id=":ee3_5" function="internal">
        <lane id=":ee3_5_0" index="0" disallow="tram rail_urban rail rail_electric rail_fast ship container cable_car subway aircraft wheelchair scooter drone" speed="3.65" length="3.23" shape="312.90,32.29 313.25,33.11 312.80,33.88 311.55,34.61"/>
    </edge>
    <edge id=":m1_0" function="internal">
        <lane id=":m1_0_0" index="0" disallow="tram rail_urban rail rail_electric rail_fast ship container cable_car subway aircraft wheelchair scooter drone" speed="7.95" length="12.80" shape="220.74,185.09 219.13,183.06 216.68,182.06 213.38,182.07 209.24,183.11"/>
    </edge>
    <edge id=":m1_1" function="internal">
        <lane id=":m1_1_0" index="0" disallow="tram rail_urban rail rail_electric rail_fast ship container cable_car subway aircraft wheelchair scooter drone" speed="13.89" length="1.44" shape="220.74,185.09 219.93,183.89"/>
    </edge>
    <edge id=":m1_2" function="internal">
        <lane id=":m1_2_0" index="0" disallow="tram rail_urban rail rail_electric rail_fast ship container cable_car subway aircraft wheelchair scooter drone" speed="4.08" length="1.44" shape="220.74,185.09 219.94,183.89"/>
    </edge>
    <edge id=":m1_9" function="internal">
        <lane id=":m1_9_0" index="0" disallow="tram rail_urban rail rail_electric rail_fast ship container cable_car subway aircraft wheelchair scooter drone" speed="13.89" length="10.60" shape="219.93,183.89 218.85,182.29 216.81,180.17 215.30,177.97 214.99,174.93"/>
    </edge>
    <edge id=":m1_10" function="internal">
        <lane id=":m1_10_0" index="0" disallow="tram rail_urban rail rail_electric rail_fast ship container cable_car subway aircraft wheelchair scooter drone" speed="4.08" length="3.23" shape="219.94,183.89 219.87,182.99 220.55,182.41 221.96,182.13"/>
    </edge>
    <edge id=":m1_3" function="internal">
        <lane id=":m1_3_0" index="0" disallow="tram rail_urban rail rail_electric rail_fast ship container cable_car subway aircraft wheelchair scooter drone" speed="6.85" length="8.48" shape="218.16,175.37 218.13,177.71 218.76,179.61 220.03,181.08 221.96,182.13"/>
    </edge>
    <edge id=":m1_4" function="internal">
        <lane id=":m1_4_0" index="0" disallow="tram rail_urban rail rail_electric rail_fast ship container cable_car subway aircraft wheelchair scooter drone" speed="9.23" length="12.39" shape="218.16,175.37 217.35,177.71 215.59,179.78 212.88,181.58 209.24,183.11"/>
    </edge>
    <edge id=":m1_5" function="internal">
        <lane id=":m1_5_0" index="0" disallow="tram rail_urban rail rail_electric rail_fast ship container cable_car subway aircraft wheelchair scooter drone" speed="3.65" length="4.67" shape="218.16,175.37 217.20,176.45 216.36,176.74 215.62,176.23 214.99,174.93"/>
    </edge>
    <edge id=":m1_6" function="internal">
        <lane id=":m1_6_0" index="0" disallow="tram rail_urban rail rail_electric rail_fast ship container cable_car subway aircraft wheelchair scooter drone" speed="6.52" length="8.31" shape="209.31,179.76 211.53,179.51 213.23,178.62 214.38,177.09 214.99,174.93"/>
    </edge>
    <edge id=":m1_7" function="internal">
        <lane id=":m1_7_0" index="0" disallow="tram rail_urban rail rail_electric rail_fast ship container cable_car subway aircraft wheelchair scooter drone" speed="13.89" length="12.95" shape="209.31,179.76 212.73,179.94 215.75,180.35 218.71,181.05 221.96,182.13"/>
    </edge>
    <edge id=":m1_8" function="internal">
        <lane id=":m1_8_0" index="0" disallow="tram rail_urban rail rail_electric rail_fast ship container cable_car subway aircraft wheelchair scooter drone" speed="3.88" length="1.36" shape="209.31,179.76 210.42,180.53"/>
    </edge>
    <edge id=":m1_11" function="internal">
        <lane id=":m1_11_0" index="0" disallow="tram rail_urban rail rail_electric rail_fast ship container cable_car subway aircraft wheelchair scooter drone" speed="3.88" length="3.54" shape="210.42,180.53 210.55,180.62 210.95,181.47 210.51,182.30 209.24,183.11"/>
    </edge>
    <edge id=":m2_0" function="internal">
        <lane id=":m2_0_0" index="0" disallow="tram rail_urban rail rail_electric rail_fast ship container cable_car subway aircraft wheelchair scooter drone" speed="6.12" length="9.33" shape="237.19,79.62 234.77,79.08 232.91,79.63 231.61,81.26 230.88,83.99"/>
    </edge>
    <edge id=":m2_1" function="internal">
        <lane id=":m2_1_0" index="0" disallow="tram rail_urban rail rail_electric rail_fast ship container cable_car subway aircraft wheelchair scooter drone" speed="13.89" length="14.54" shape="237.19,79.62 233.71,78.45 230.20,77.70 226.63,77.30 222.94,77.17"/>
    </edge>
    <edge id=":m2_2" function="internal">
        <lane id=":m2_2_0" index="0" disallow="tram rail_urban rail rail_electric rail_fast ship container cable_car subway aircraft wheelchair scooter drone" speed="8.62" length="13.89" shape="237.19,79.62 233.56,77.69 231.14,75.31 229.92,72.47 229.91,69.17"/>
    </edge>
    <edge id=":m2_3" function="internal">
        <lane id=":m2_3_0" index="0" disallow="tram rail_urban rail rail_electric rail_fast ship container cable_car subway aircraft wheelchair scooter drone" speed="3.67" length="4.76" shape="237.19,79.62 236.15,78.59 235.91,77.71 236.47,76.99 237.82,76.42"/>
    </edge>
    <edge id=":m2_4" function="internal">
        <lane id=":m2_4_0" index="0" disallow="tram rail_urban rail rail_electric rail_fast ship container cable_car subway aircraft wheelchair scooter drone" speed="7.04" length="8.98" shape="233.07,69.71 233.08,71.82 233.88,73.64 235.46,75.17 237.82,76.42"/>
    </edge>
    <edge id=":m2_5" function="internal">
        <lane id=":m2_5_0" index="0" disallow="tram rail_urban rail rail_electric rail_fast ship container cable_car subway aircraft wheelchair scooter drone" speed="13.89" length="14.45" shape="233.07,69.71 230.88,83.99"/>
    </edge>
    <edge id=":m2_6" function="internal">
        <lane id=":m2_6_0" index="0" disallow="tram rail_urban rail rail_electric rail_fast ship container cable_car subway aircraft wheelchair scooter drone" speed="8.27" length="3.55" shape="233.07,69.71 231.81,72.45 231.43,72.82"/>
    </edge>
    <edge id=":m2_7" function="internal">
        <lane id=":m2_7_0" index="0" disallow="tram rail_urban rail rail_electric rail_fast ship container cable_car subway aircraft wheelchair scooter drone" speed="3.65" length="1.44" shape="233.07,69.71 232.08,70.76"/>
    </edge>
    <edge id=":m2_16" function="internal">
        <lane id=":m2_16_0" index="0" disallow="tram rail_urban rail rail_electric rail_fast ship container cable_car subway aircraft wheelchair scooter drone" speed="8.27" length="9.79" shape="231.43,72.82 229.34,74.85 226.21,76.53 222.94,77.17"/>
    </edge>
    <edge id=":m2_17" function="internal">
        <lane id=":m2_17_0" index="0" disallow="tram rail_urban rail rail_electric rail_fast ship container cable_car subway aircraft wheelchair scooter drone" speed="3.65" length="3.23" shape="232.08,70.76 231.23,71.02 230.50,70.49 229.91,69.17"/>
    </edge>
    <edge id=":m2_8" function="internal">
        <lane id=":m2_8_0" index="0" disallow="tram rail_urban rail rail_electric rail_fast ship container cable_car subway aircraft wheelchair scooter drone" speed="6.88" length="8.93" shape="223.38,73.97 225.93,73.68 227.87,72.78 229.20,71.28 229.91,69.17"/>
    </edge>
    <edge id=":m2_9" function="internal">
        <lane id=":m2_9_0" index="0" disallow="tram rail_urban rail rail_electric rail_fast ship container cable_car subway aircraft wheelchair scooter drone" speed="13.89" length="14.73" shape="223.38,73.97 227.09,74.10 230.73,74.50 234.31,75.26 237.82,76.42"/>
    </edge>
    <edge id=":m2_10" function="internal">
        <lane id=":m2_10_0" index="0" disallow="tram rail_urban rail rail_electric rail_fast ship container cable_car subway aircraft wheelchair scooter drone" speed="7.78" length="14.73" shape="223.38,73.97 227.18,74.61 229.70,76.49 230.93,79.62 230.88,83.99"/>
    </edge>
    <edge id=":m2_11" function="internal">
        <lane id=":m2_11_0" index="0" disallow="tram rail_urban rail rail_electric rail_fast ship container cable_car subway aircraft wheelchair scooter drone" speed="3.66" length="4.71" shape="223.38,73.97 224.47,74.93 224.76,75.79 224.25,76.53 222.94,77.17"/>
    </edge>
    <edge id=":m2_12" function="internal">
        <lane id=":m2_12_0" index="0" disallow="tram rail_urban rail rail_electric rail_fast ship container cable_car subway aircraft wheelchair scooter drone" speed="6.33" length="9.37" shape="227.71,83.55 227.74,80.76 226.96,78.77 225.36,77.57 222.94,77.17"/>
    </edge>
    <edge id=":m2_13" function="internal">
        <lane id=":m2_13_0" index="0" disallow="tram rail_urban rail rail_electric rail_fast ship container cable_car subway aircraft wheelchair scooter drone" speed="13.89" length="14.54" shape="227.71,83.55 229.91,69.17"/>
    </edge>
    <edge id=":m2_14" function="internal">
        <lane id=":m2_14_0" index="0" disallow="tram rail_urban rail rail_electric rail_fast ship container cable_car subway aircraft wheelchair scooter drone" speed="7.25" length="4.68" shape="227.71,83.55 228.99,80.50 229.95,79.52"/>
    </edge>
    <edge id=":m2_15" function="internal">
        <lane id=":m2_15_0" index="0" disallow="tram rail_urban rail rail_electric rail_fast ship container cable_car subway aircraft wheelchair scooter drone" speed="3.65" length="1.44" shape="227.71,83.55 228.67,82.47"/>
    </edge>
    <edge id=":m2_18" function="internal">
        <lane id=":m2_18_0" index="0" disallow="tram rail_urban rail rail_electric rail_fast ship container cable_car subway aircraft wheelchair scooter drone" speed="7.25" length="8.93" shape="229.95,79.52 231.54,77.88 234.71,76.31 237.82,76.42"/>
    </edge>
    <edge id=":m2_19" function="internal">
        <lane id=":m2_19_0" index="0" disallow="tram rail_urban rail rail_electric rail_fast ship container cable_car subway aircraft wheelchair scooter drone" speed="3.65" length="3.23" shape="228.67,82.47 229.51,82.18 230.25,82.69 230.88,83.99"/>
    </edge>
    <edge id=":n1_0" function="internal">
        <lane id=":n1_0_0" index="0" disallow="tram rail_urban rail rail_electric rail_fast ship container cable_car subway aircraft wheelchair scooter drone" speed="13.89" length="14.52" shape="189.28,230.45 175.75,225.15"/>
    </edge>
    <edge id=":n1_1" function="internal">
        <lane id=":n1_1_0" index="0" disallow="tram rail_urban rail rail_electric rail_fast ship container cable_car subway aircraft wheelchair scooter drone" speed="7.82" length="4.23" shape="189.28,230.45 185.72,228.47 185.62,228.34"/>
    </edge>
    <edge id=":n1_2" function="internal">
        <lane id=":n1_2_0" index="0" disallow="tram rail_urban rail rail_electric rail_fast ship container cable_car subway aircraft wheelchair scooter drone" speed="3.65" length="1.44" shape="189.28,230.45 188.44,229.27"/>
    </edge>
    <edge id=":n1_9" function="internal">
        <lane id=":n1_9_0" index="0" disallow="tram rail_urban rail rail_electric rail_fast ship container cable_car subway aircraft wheelchair scooter drone" speed="7.82" length="10.38" shape="185.62,228.34 183.79,225.87 183.48,222.65 184.79,218.80"/>
    </edge>
    <edge id=":n1_10" function="internal">
        <lane id=":n1_10_0" index="0" disallow="tram rail_urban rail rail_electric rail_fast ship container cable_car subway aircraft wheelchair scooter drone" speed="3.65" length="3.23" shape="188.44,229.27 188.35,228.38 189.01,227.78 190.42,227.46"/>
    </edge>
    <edge id=":n1_3" function="internal">
        <lane id=":n1_3_0" index="0" disallow="tram rail_urban rail rail_electric rail_fast ship container cable_car subway aircraft wheelchair scooter drone" speed="6.29" length="9.04" shape="187.64,220.25 186.83,222.63 187.02,224.63 188.22,226.24 190.42,227.46"/>
    </edge>
    <edge id=":n1_4" function="internal">
        <lane id=":n1_4_0" index="0" disallow="tram rail_urban rail rail_electric rail_fast ship container cable_car subway aircraft wheelchair scooter drone" speed="8.32" length="14.39" shape="187.64,220.25 185.36,223.57 182.62,225.50 179.42,226.02 175.75,225.15"/>
    </edge>
    <edge id=":n1_5" function="internal">
        <lane id=":n1_5_0" index="0" disallow="tram rail_urban rail rail_electric rail_fast ship container cable_car subway aircraft wheelchair scooter drone" speed="3.65" length="4.67" shape="187.64,220.25 186.38,220.95 185.49,220.95 184.96,220.23 184.79,218.80"/>
    </edge>
    <edge id=":n1_6" function="internal">
        <lane id=":n1_6_0" index="0" disallow="tram rail_urban rail rail_electric rail_fast ship container cable_car subway aircraft wheelchair scooter drone" speed="6.89" length="9.55" shape="176.95,222.19 179.34,222.74 181.44,222.36 183.26,221.04 184.79,218.80"/>
    </edge>
    <edge id=":n1_7" function="internal">
        <lane id=":n1_7_0" index="0" disallow="tram rail_urban rail rail_electric rail_fast ship container cable_car subway aircraft wheelchair scooter drone" speed="13.89" length="14.46" shape="176.95,222.19 190.42,227.46"/>
    </edge>
    <edge id=":n1_8" function="internal">
        <lane id=":n1_8_0" index="0" disallow="tram rail_urban rail rail_electric rail_fast ship container cable_car subway aircraft wheelchair scooter drone" speed="3.65" length="1.44" shape="176.95,222.19 177.76,223.38"/>
    </edge>
    <edge id=":n1_11" function="internal">