<?xml version="1.0" encoding="UTF-8"?>

<!-- generated on 2025-11-24 11:55:44 by Eclipse SUMO GUI Version 1.22.0
<sumoConfiguration xmlns:xsi="http://www.w3.org/2001/XMLSchema-instance" xsi:noNamespaceSchemaLocation="http://sumo.dlr.de/xsd/sumoConfiguration.xsd">

    <input>
        <net-file value="/home/ed-5355-1/test/van3t-efficiency/ns-3-dev/src/automotive/examples/Stor_korsning/osm.net.xml.gz"/>
        <route-files value="/home/ed-5355-1/test/van3t-efficiency/ns-3-dev/src/automotive/examples/Stor_korsning/osm.passenger.trips.xml"/>
        <additional-files value="/home/ed-5355-1/test/van3t-efficiency/ns-3-dev/src/automotive/examples/Stor_korsning/output.add.xml,/home/ed-5355-1/test/van3t-efficiency/ns-3-dev/src/automotive/examples/Stor_korsning/osm.med.add.xml"/>
    </input>

    <output>
        <tripinfo-output value="/home/ed-5355-1/test/van3t-efficiency/ns-3-dev/src/automotive/examples/Stor_korsning/tripinfos.xml"/>
        <statistic-output value="/home/ed-5355-1/test/van3t-efficiency/ns-3-dev/src/automotive/examples/Stor_korsning/stats.xml"/>
    </output>

    <time>
        <step-length value="0.010000"/>
    </time>

    <processing>
        <ignore-route-errors value="true"/>
        <collision.action value="warn"/>
        <collision.check-junctions value="true"/>
        <tls.actuated.jam-threshold value="30"/>
    </processing>

    <routing>
        <device.rerouting.adaptation-steps value="18"/>
        <device.rerouting.adaptation-interval value="10"/>
    </routing>

    <report>
        <verbose value="true"/>
        <error-log value="sumo-errors-or-collisions.xml"/>
        <duration-log.statistics value="true"/>
        <no-step-log value="true"/>
    </report>

    <traci_server>
        <remote-port value="3400"/>
    </traci_server>

    <random_number>
        <seed value="10"/>
    </random_number>

    <gui_only>
        <gui-settings-file value="/home/ed-5355-1/test/van3t-efficiency/ns-3-dev/src/automotive/examples/Stor_korsning/osm.view.xml"/>
        <quit-on-end value="true"/>
        <start value="true"/>
    </gui_only>

</sumoConfiguration>
-->

<tripinfos xmlns:xsi="http://www.w3.org/2001/XMLSchema-instance" xsi:noNamespaceSchemaLocation="http://sumo.dlr.de/xsd/tripinfo_file.xsd">
    <tripinfo id="veh0" depart="0.00" departLane="26157522#1_0" departPos="5.10" departSpeed="0.00" departDelay="0.00" arrival="51.28" arrivalLane="-23413212#5_0" arrivalPos="72.42" arrivalSpeed="15.28" duration="51.28" routeLength="589.84" waitingTime="0.00" waitingCount="0" stopTime="0.00" timeLoss="10.43" rerouteNo="1" devices="tripinfo_veh0 routing_veh0" vType="veh_passenger" speedFactor="1.10" vaporized=""/>
</tripinfos>
